      -----------------------------------------------------------      
     |                   =====================                   |     
     |                           x T B                           |     
     |                   =====================                   |     
     |                         S. Grimme                         |     
     |          Mulliken Center for Theoretical Chemistry        |     
     |                    University of Bonn                     |     
      -----------------------------------------------------------      

   * xtb version 6.4.1 (unknown) compiled by 'oda6@login1.crc.pitt.edu' on 2021-06-25

   xtb is free software: you can redistribute it and/or modify it under
   the terms of the GNU Lesser General Public License as published by
   the Free Software Foundation, either version 3 of the License, or
   (at your option) any later version.
   
   xtb is distributed in the hope that it will be useful,
   but WITHOUT ANY WARRANTY; without even the implied warranty of
   MERCHANTABILITY or FITNESS FOR A PARTICULAR PURPOSE.  See the
   GNU Lesser General Public License for more details.
   
   Cite this work as:
   * C. Bannwarth, E. Caldeweyher, S. Ehlert, A. Hansen, P. Pracht,
     J. Seibert, S. Spicher, S. Grimme, WIREs Comput. Mol. Sci., 2020, 11,
     e01493. DOI: 10.1002/wcms.1493
   
   for GFN2-xTB:
   * C. Bannwarth, S. Ehlert and S. Grimme., J. Chem. Theory Comput., 2019,
     15, 1652-1671. DOI: 10.1021/acs.jctc.8b01176
   for GFN1-xTB:
   * S. Grimme, C. Bannwarth, P. Shushkov, J. Chem. Theory Comput., 2017,
     13, 1989-2009. DOI: 10.1021/acs.jctc.7b00118
   for GFN0-xTB:
   * P. Pracht, E. Caldeweyher, S. Ehlert, S. Grimme, ChemRxiv, 2019, preprint.
     DOI: 10.26434/chemrxiv.8326202.v1
   for GFN-FF:
   * S. Spicher and S. Grimme, Angew. Chem. Int. Ed., 2020, 59, 15665-15673.
     DOI: 10.1002/anie.202004239
   
   for DFT-D4:
   * E. Caldeweyher, C. Bannwarth and S. Grimme, J. Chem. Phys., 2017,
     147, 034112. DOI: 10.1063/1.4993215
   * E. Caldeweyher, S. Ehlert, A. Hansen, H. Neugebauer, S. Spicher,
     C. Bannwarth and S. Grimme, J. Chem. Phys., 2019, 150, 154122.
     DOI: 10.1063/1.5090222
   * E. Caldeweyher, J.-M. Mewes, S. Ehlert and S. Grimme, Phys. Chem. Chem. Phys.
     2020, 22, 8499-8512. DOI: 10.1039/D0CP00502A
   
   for sTDA-xTB:
   * S. Grimme and C. Bannwarth, J. Chem. Phys., 2016, 145, 054103.
     DOI: 10.1063/1.4959605
   
   in the mass-spec context:
   * V. Asgeirsson, C. Bauer and S. Grimme, Chem. Sci., 2017, 8, 4879.
     DOI: 10.1039/c7sc00601b
   * J. Koopman and S. Grimme, ACS Omega 2019, 4, 12, 15120-15133.
     DOI: 10.1021/acsomega.9b02011
   
   for metadynamics refer to:
   * S. Grimme, J. Chem. Theory Comput., 2019, 155, 2847-2862
     DOI: 10.1021/acs.jctc.9b00143
   
   for SPH calculations refer to:
   * S. Spicher and S. Grimme, J. Chem. Theory Comput., 2021, 17, 1701-1714
     DOI: 10.1021/acs.jctc.0c01306
   
   with help from (in alphabetical order)
   P. Atkinson, C. Bannwarth, F. Bohle, G. Brandenburg, E. Caldeweyher
   M. Checinski, S. Dohm, S. Ehlert, S. Ehrlich, I. Gerasimov, J. Koopman
   C. Lavigne, S. Lehtola, F. März, M. Müller, F. Musil, H. Neugebauer
   J. Pisarek, C. Plett, P. Pracht, J. Seibert, P. Shushkov, S. Spicher
   M. Stahn, M. Steiner, T. Strunk, J. Stückrath, T. Rose, and J. Unsleber
   
 * started run on 2022/02/28 at 16:51:42.003     

           -------------------------------------------------
          |                Calculation Setup                |
           -------------------------------------------------

          program call               : /ihome/ghutchison/oda6/xtb/xtb-641/bin/xtb ../../FF_optimized/995_832_111111.mol -opt
          hostname                   : smp-n66
          coordinate file            : ../../FF_optimized/995_832_111111.mol
          omp threads                :                     8
          number of atoms            :                   140
          number of electrons        :                   422
          charge                     :                     0
          spin                       :                   0.0
          first test random number   :      0.84690968319183

   ID    Z sym.   atoms
    1    6 C      1-8, 10-23, 25-38, 40-53, 55-68, 70-83, 85-90
    2   16 S      9, 24, 39, 54, 69, 84
    3    1 H      91-140
########################################################################
[WARNING] Please study the warnings concerning your input carefully
-1- prog_main_parseArguments: the use of '-opt' is discouraged, please use '--opt' next time
########################################################################

           -------------------------------------------------
          |                 G F N 2 - x T B                 |
           -------------------------------------------------

        Reference                      10.1021/acs.jctc.8b01176
      * Hamiltonian:
        H0-scaling (s, p, d)           1.850000    2.230000    2.230000
        zeta-weighting                 0.500000
      * Dispersion:
        s8                             2.700000
        a1                             0.520000
        a2                             5.000000
        s9                             5.000000
      * Repulsion:
        kExp                           1.500000    1.000000
        rExp                           1.000000
      * Coulomb:
        alpha                          2.000000
        third order                    shell-resolved
        anisotropic                    true
        a3                             3.000000
        a5                             4.000000
        cn-shift                       1.200000
        cn-exp                         4.000000
        max-rad                        5.000000


          ...................................................
          :                      SETUP                      :
          :.................................................:
          :  # basis functions                 446          :
          :  # atomic orbitals                 440          :
          :  # shells                          236          :
          :  # electrons                       422          :
          :  max. iterations                   250          :
          :  Hamiltonian                  GFN2-xTB          :
          :  restarted?                      false          :
          :  GBSA solvation                  false          :
          :  PC potential                    false          :
          :  electronic temp.          300.0000000     K    :
          :  accuracy                    1.0000000          :
          :  -> integral cutoff          0.2500000E+02      :
          :  -> integral neglect         0.1000000E-07      :
          :  -> SCF convergence          0.1000000E-05 Eh   :
          :  -> wf. convergence          0.1000000E-03 e    :
          :  Broyden damping             0.4000000          :
          ...................................................

 iter      E             dE          RMSdq      gap      omega  full diag
   1   -228.7392365 -0.228739E+03  0.441E+00    2.43       0.0  T
   2   -228.8364108 -0.971743E-01  0.253E+00    2.35       1.0  T
   3   -228.8003901  0.360207E-01  0.750E-01    2.26       1.0  T
   4   -228.8448007 -0.444106E-01  0.306E-01    2.33       1.0  T
   5   -228.8512100 -0.640925E-02  0.127E-01    2.33       1.0  T
   6   -228.8528927 -0.168279E-02  0.543E-02    2.33       1.0  T
   7   -228.8531082 -0.215409E-03  0.197E-02    2.33       1.0  T
   8   -228.8531362 -0.280871E-04  0.896E-03    2.33       1.0  T
   9   -228.8531370 -0.790102E-06  0.393E-03    2.33       2.1  T
  10   -228.8531383 -0.124239E-05  0.135E-03    2.33       6.2  T
  11   -228.8531384 -0.933145E-07  0.720E-04    2.33      11.7  T
  12   -228.8531384 -0.207538E-07  0.366E-04    2.33      23.1  T

   *** convergence criteria satisfied after 12 iterations ***

         #    Occupation            Energy/Eh            Energy/eV
      -------------------------------------------------------------
         1        2.0000           -0.7327914             -19.9403
       ...           ...                  ...                  ...
       205        2.0000           -0.3786573             -10.3038
       206        2.0000           -0.3725119             -10.1366
       207        2.0000           -0.3662115              -9.9651
       208        2.0000           -0.3622464              -9.8572
       209        2.0000           -0.3617453              -9.8436
       210        2.0000           -0.3610236              -9.8240
       211        2.0000           -0.3585472              -9.7566 (HOMO)
       212                         -0.2729901              -7.4284 (LUMO)
       213                         -0.2679342              -7.2909
       214                         -0.2652603              -7.2181
       215                         -0.2605158              -7.0890
       216                         -0.2580990              -7.0232
       ...                                ...                  ...
       440                          0.7911318              21.5278
      -------------------------------------------------------------
                  HL-Gap            0.0855571 Eh            2.3281 eV
             Fermi-level           -0.3157686 Eh           -8.5925 eV

 SCC (total)                   0 d,  0 h,  0 min,  0.323 sec
 SCC setup                      ...        0 min,  0.001 sec (  0.400%)
 Dispersion                     ...        0 min,  0.005 sec (  1.699%)
 classical contributions        ...        0 min,  0.000 sec (  0.058%)
 integral evaluation            ...        0 min,  0.019 sec (  5.789%)
 iterations                     ...        0 min,  0.233 sec ( 72.112%)
 molecular gradient             ...        0 min,  0.063 sec ( 19.448%)
 printout                       ...        0 min,  0.002 sec (  0.466%)

         :::::::::::::::::::::::::::::::::::::::::::::::::::::
         ::                     SUMMARY                     ::
         :::::::::::::::::::::::::::::::::::::::::::::::::::::
         :: total energy            -224.824404064905 Eh    ::
         :: gradient norm              0.253520361583 Eh/a0 ::
         :: HOMO-LUMO gap              2.328127195592 eV    ::
         ::.................................................::
         :: SCC energy              -228.853138386353 Eh    ::
         :: -> isotropic ES            0.009099902406 Eh    ::
         :: -> anisotropic ES          0.022206142510 Eh    ::
         :: -> anisotropic XC          0.127318354771 Eh    ::
         :: -> dispersion             -0.247942003651 Eh    ::
         :: repulsion energy           4.016901850016 Eh    ::
         :: add. restraining           0.000000000000 Eh    ::
         :: total charge               0.000000000000 e     ::
         :::::::::::::::::::::::::::::::::::::::::::::::::::::

      ----------------------------------------------------------- 
     |                   =====================                   |
     |                        A N C O P T                        |
     |                   =====================                   |
     |               Approximate Normal Coordinate               |
     |                Rational Function Optimizer                |
      ----------------------------------------------------------- 

          ...................................................
          :                      SETUP                      :
          :.................................................:
          :   optimization level            normal          :
          :   max. optcycles                   420          :
          :   ANC micro-cycles                  20          :
          :   degrees of freedom               414          :
          :.................................................:
          :   RF solver                   davidson          :
          :   write xtbopt.log                true          :
          :   linear?                        false          :
          :   energy convergence         0.5000000E-05 Eh   :
          :   grad. convergence          0.1000000E-02 Eh/α :
          :   maximium RF displ.         1.0000000          :
          :   Hlow (freq-cutoff)         0.1000000E-01      :
          :   Hmax (freq-cutoff)         5.0000000          :
          :   S6 in model hess.         20.0000000          :
          ...................................................

generating ANC from model Hessian ...
Using Lindh-Hessian (1995)
 Shifting diagonal of input Hessian by   1.002527672593636E-002
 Lowest  eigenvalues of input Hessian
    0.010000    0.000000    0.000000    0.000000    0.000000    0.000000
    0.000000    0.010071    0.010074    0.010109    0.010155    0.010172
    0.010200    0.010258    0.010265    0.010394    0.010411    0.010432
 Highest eigenvalues
    2.124626    2.124664    2.126936    2.128277    2.129655    2.137082
 

........................................................................
.............................. CYCLE    1 ..............................
........................................................................
   1   -228.8531384 -0.228853E+03  0.169E-04    2.33       0.0  T
   2   -228.8531384 -0.237122E-09  0.124E-04    2.33      67.9  T
   3   -228.8531384 -0.596742E-09  0.860E-05    2.33      98.3  T
     SCC iter.                  ...        0 min,  0.064 sec
     gradient                   ...        0 min,  0.060 sec
 * total energy  :  -224.8244041 Eh     change       -0.8607685E-08 Eh
   gradient norm :     0.2535219 Eh/α   predicted     0.0000000E+00 (-100.00%)
   displ. norm   :     0.3570029 α      lambda       -0.6714948E-01
   maximum displ.:     0.0854605 α      in ANC's #281, #286, #287, ...

........................................................................
.............................. CYCLE    2 ..............................
........................................................................
   1   -228.9566595 -0.228957E+03  0.206E-01    2.37       0.0  T
   2   -228.9571853 -0.525737E-03  0.154E-01    2.35       1.0  T
   3   -228.9570769  0.108392E-03  0.701E-02    2.36       1.0  T
   4   -228.9576663 -0.589386E-03  0.211E-02    2.35       1.0  T
   5   -228.9576927 -0.264696E-04  0.106E-02    2.35       1.0  T
   6   -228.9577052 -0.125007E-04  0.325E-03    2.35       2.6  T
   7   -228.9577056 -0.334175E-06  0.168E-03    2.35       5.0  T
   8   -228.9577058 -0.242165E-06  0.655E-04    2.35      12.9  T
   9   -228.9577058 -0.909134E-08  0.373E-04    2.35      22.6  T
     SCC iter.                  ...        0 min,  0.180 sec
     gradient                   ...        0 min,  0.062 sec
 * total energy  :  -224.8719443 Eh     change       -0.4754027E-01 Eh
   gradient norm :     0.1107740 Eh/α   predicted    -0.3785900E-01 ( -20.36%)
   displ. norm   :     0.3282964 α      lambda       -0.2233422E-01
   maximum displ.:     0.0647381 α      in ANC's #35, #114, #281, ...

........................................................................
.............................. CYCLE    3 ..............................
........................................................................
   1   -229.0132682 -0.229013E+03  0.158E-01    2.37       0.0  T
   2   -229.0135868 -0.318588E-03  0.112E-01    2.35       1.0  T
   3   -229.0134463  0.140491E-03  0.535E-02    2.35       1.0  T
   4   -229.0137966 -0.350268E-03  0.181E-02    2.35       1.0  T
   5   -229.0138162 -0.196285E-04  0.793E-03    2.35       1.1  T
   6   -229.0138233 -0.705786E-05  0.257E-03    2.35       3.3  T
   7   -229.0138235 -0.235853E-06  0.122E-03    2.35       6.9  T
   8   -229.0138236 -0.122901E-06  0.528E-04    2.35      16.0  T
   9   -229.0138237 -0.647188E-08  0.284E-04    2.35      29.8  T
     SCC iter.                  ...        0 min,  0.185 sec
     gradient                   ...        0 min,  0.063 sec
 * total energy  :  -224.8853019 Eh     change       -0.1335754E-01 Eh
   gradient norm :     0.0340353 Eh/α   predicted    -0.1237280E-01 (  -7.37%)
   displ. norm   :     0.3142386 α      lambda       -0.3270349E-02
   maximum displ.:     0.1118027 α      in ANC's #35, #40, #29, ...

........................................................................
.............................. CYCLE    4 ..............................
........................................................................
   1   -229.0174615 -0.229017E+03  0.785E-02    2.35       0.0  T
   2   -229.0174915 -0.299834E-04  0.467E-02    2.34       1.0  T
   3   -229.0174513  0.402319E-04  0.189E-02    2.34       1.0  T
   4   -229.0174989 -0.475581E-04  0.591E-03    2.34       1.4  T
   5   -229.0175016 -0.271268E-05  0.224E-03    2.34       3.8  T
   6   -229.0175020 -0.470458E-06  0.970E-04    2.34       8.7  T
   7   -229.0175021 -0.693980E-07  0.388E-04    2.34      21.8  T
     SCC iter.                  ...        0 min,  0.135 sec
     gradient                   ...        0 min,  0.060 sec
 * total energy  :  -224.8876270 Eh     change       -0.2325144E-02 Eh
   gradient norm :     0.0167215 Eh/α   predicted    -0.1796647E-02 ( -22.73%)
   displ. norm   :     0.3889451 α      lambda       -0.1786469E-02
   maximum displ.:     0.1458249 α      in ANC's #35, #29, #24, ...

........................................................................
.............................. CYCLE    5 ..............................
........................................................................
   1   -229.0164714 -0.229016E+03  0.773E-02    2.34       0.0  T
   2   -229.0164828 -0.113902E-04  0.445E-02    2.34       1.0  T
   3   -229.0164734  0.938326E-05  0.102E-02    2.33       1.0  T
   4   -229.0164838 -0.103620E-04  0.399E-03    2.33       2.1  T
   5   -229.0164851 -0.127049E-05  0.149E-03    2.33       5.7  T
   6   -229.0164852 -0.179435E-06  0.605E-04    2.33      14.0  T
   7   -229.0164853 -0.261559E-07  0.208E-04    2.33      40.6  T
     SCC iter.                  ...        0 min,  0.130 sec
     gradient                   ...        0 min,  0.061 sec
 * total energy  :  -224.8888753 Eh     change       -0.1248259E-02 Eh
   gradient norm :     0.0075359 Eh/α   predicted    -0.1028375E-02 ( -17.62%)
   displ. norm   :     0.3953966 α      lambda       -0.9699911E-03
   maximum displ.:     0.1383588 α      in ANC's #35, #29, #24, ...

........................................................................
.............................. CYCLE    6 ..............................
........................................................................
   1   -229.0156936 -0.229016E+03  0.702E-02    2.33       0.0  T
   2   -229.0156962 -0.253873E-05  0.409E-02    2.33       1.0  T
   3   -229.0156857  0.104426E-04  0.838E-03    2.33       1.0  T
   4   -229.0156974 -0.116134E-04  0.242E-03    2.33       3.5  T
   5   -229.0156976 -0.274064E-06  0.126E-03    2.33       6.7  T
   6   -229.0156978 -0.157048E-06  0.400E-04    2.33      21.2  T
   7   -229.0156978 -0.749665E-08  0.221E-04    2.33      38.3  T
     SCC iter.                  ...        0 min,  0.144 sec
     gradient                   ...        0 min,  0.061 sec
 * total energy  :  -224.8895921 Eh     change       -0.7168397E-03 Eh
   gradient norm :     0.0105778 Eh/α   predicted    -0.5608959E-03 ( -21.75%)
   displ. norm   :     0.4733111 α      lambda       -0.8732644E-03
   maximum displ.:     0.1437257 α      in ANC's #35, #13, #14, ...

........................................................................
.............................. CYCLE    7 ..............................
........................................................................
   1   -229.0165106 -0.229017E+03  0.771E-02    2.33       0.0  T
   2   -229.0165126 -0.197560E-05  0.452E-02    2.33       1.0  T
   3   -229.0164980  0.145994E-04  0.101E-02    2.33       1.0  T
   4   -229.0165143 -0.163122E-04  0.229E-03    2.33       3.7  T
   5   -229.0165143 -0.541201E-08  0.143E-03    2.33       5.9  T
   6   -229.0165145 -0.214490E-06  0.399E-04    2.33      21.2  T
   7   -229.0165145 -0.188535E-08  0.245E-04    2.33      34.5  T
     SCC iter.                  ...        0 min,  0.134 sec
     gradient                   ...        0 min,  0.061 sec
 * total energy  :  -224.8902456 Eh     change       -0.6534600E-03 Eh
   gradient norm :     0.0123832 Eh/α   predicted    -0.5344754E-03 ( -18.21%)
   displ. norm   :     0.5220990 α      lambda       -0.8313751E-03
   maximum displ.:     0.1686007 α      in ANC's #13, #14, #9, ...

........................................................................
.............................. CYCLE    8 ..............................
........................................................................
   1   -229.0187600 -0.229019E+03  0.788E-02    2.32       0.0  T
   2   -229.0187639 -0.398193E-05  0.461E-02    2.32       1.0  T
   3   -229.0187507  0.132200E-04  0.102E-02    2.32       1.0  T
   4   -229.0187651 -0.144194E-04  0.294E-03    2.32       2.9  T
   5   -229.0187657 -0.524056E-06  0.150E-03    2.32       5.6  T
   6   -229.0187659 -0.203548E-06  0.479E-04    2.32      17.7  T
   7   -229.0187659 -0.663897E-08  0.226E-04    2.32      37.5  T
     SCC iter.                  ...        0 min,  0.141 sec
     gradient                   ...        0 min,  0.060 sec
 * total energy  :  -224.8908928 Eh     change       -0.6472520E-03 Eh
   gradient norm :     0.0097111 Eh/α   predicted    -0.5290069E-03 ( -18.27%)
   displ. norm   :     0.5513215 α      lambda       -0.7854094E-03
   maximum displ.:     0.1997838 α      in ANC's #13, #14, #9, ...

........................................................................
.............................. CYCLE    9 ..............................
........................................................................
   1   -229.0222126 -0.229022E+03  0.729E-02    2.31       0.0  T
   2   -229.0222174 -0.480732E-05  0.423E-02    2.32       1.0  T
   3   -229.0222095  0.789252E-05  0.860E-03    2.32       1.0  T
   4   -229.0222178 -0.826707E-05  0.335E-03    2.32       2.5  T
   5   -229.0222187 -0.918962E-06  0.138E-03    2.32       6.1  T
   6   -229.0222189 -0.173086E-06  0.438E-04    2.32      19.3  T
   7   -229.0222189 -0.895972E-08  0.180E-04    2.32      46.9  T
     SCC iter.                  ...        0 min,  0.133 sec
     gradient                   ...        0 min,  0.060 sec
 * total energy  :  -224.8915342 Eh     change       -0.6413229E-03 Eh
   gradient norm :     0.0062875 Eh/α   predicted    -0.5120720E-03 ( -20.15%)
   displ. norm   :     0.5999358 α      lambda       -0.7629391E-03
   maximum displ.:     0.2352398 α      in ANC's #13, #9, #14, ...

........................................................................
.............................. CYCLE   10 ..............................
........................................................................
   1   -229.0245289 -0.229025E+03  0.691E-02    2.31       0.0  T
   2   -229.0245321 -0.320130E-05  0.400E-02    2.31       1.0  T
   3   -229.0245265  0.564491E-05  0.707E-03    2.31       1.2  T
   4   -229.0245326 -0.608099E-05  0.287E-03    2.31       2.9  T
   5   -229.0245332 -0.605881E-06  0.114E-03    2.31       7.4  T
   6   -229.0245333 -0.112075E-06  0.376E-04    2.31      22.5  T
   7   -229.0245333 -0.106496E-07  0.170E-04    2.31      49.8  T
     SCC iter.                  ...        0 min,  0.141 sec
     gradient                   ...        0 min,  0.059 sec
 * total energy  :  -224.8921832 Eh     change       -0.6490690E-03 Eh
   gradient norm :     0.0080751 Eh/α   predicted    -0.5187709E-03 ( -20.07%)
   displ. norm   :     0.6571493 α      lambda       -0.7863618E-03
   maximum displ.:     0.2673384 α      in ANC's #13, #6, #9, ...

........................................................................
.............................. CYCLE   11 ..............................
........................................................................
   1   -229.0248134 -0.229025E+03  0.681E-02    2.31       0.0  T
   2   -229.0248151 -0.170845E-05  0.394E-02    2.30       1.0  T
   3   -229.0248109  0.421987E-05  0.607E-03    2.31       1.4  T
   4   -229.0248157 -0.480998E-05  0.239E-03    2.31       3.5  T
   5   -229.0248160 -0.269369E-06  0.858E-04    2.31       9.9  T
   6   -229.0248161 -0.833222E-07  0.269E-04    2.31      31.4  T
     SCC iter.                  ...        0 min,  0.119 sec
     gradient                   ...        0 min,  0.059 sec
 * total energy  :  -224.8928733 Eh     change       -0.6900210E-03 Eh
   gradient norm :     0.0103219 Eh/α   predicted    -0.5629756E-03 ( -18.41%)
   displ. norm   :     0.7011195 α      lambda       -0.8297937E-03
   maximum displ.:     0.2902032 α      in ANC's #13, #6, #9, ...

........................................................................
.............................. CYCLE   12 ..............................
........................................................................
   1   -229.0239763 -0.229024E+03  0.691E-02    2.30       0.0  T
   2   -229.0239785 -0.216822E-05  0.399E-02    2.30       1.0  T
   3   -229.0239746  0.389397E-05  0.635E-03    2.30       1.3  T
   4   -229.0239790 -0.439281E-05  0.266E-03    2.30       3.2  T
   5   -229.0239794 -0.362380E-06  0.950E-04    2.30       8.9  T
   6   -229.0239795 -0.101125E-06  0.321E-04    2.30      26.3  T
     SCC iter.                  ...        0 min,  0.118 sec
     gradient                   ...        0 min,  0.059 sec
 * total energy  :  -224.8935996 Eh     change       -0.7263141E-03 Eh
   gradient norm :     0.0097307 Eh/α   predicted    -0.6188489E-03 ( -14.80%)
   displ. norm   :     0.7140377 α      lambda       -0.8004170E-03
   maximum displ.:     0.2964999 α      in ANC's #13, #6, #9, ...

........................................................................
.............................. CYCLE   13 ..............................
........................................................................
   1   -229.0225635 -0.229023E+03  0.708E-02    2.30       0.0  T
   2   -229.0225673 -0.380615E-05  0.407E-02    2.30       1.0  T
   3   -229.0225622  0.507448E-05  0.738E-03    2.30       1.1  T
   4   -229.0225677 -0.551640E-05  0.323E-03    2.30       2.6  T
   5   -229.0225684 -0.664232E-06  0.117E-03    2.30       7.2  T
   6   -229.0225685 -0.122700E-06  0.435E-04    2.30      19.4  T
   7   -229.0225685 -0.173973E-07  0.168E-04    2.30      50.3  T
     SCC iter.                  ...        0 min,  0.135 sec
     gradient                   ...        0 min,  0.059 sec
 * total energy  :  -224.8942802 Eh     change       -0.6806813E-03 Eh
   gradient norm :     0.0069382 Eh/α   predicted    -0.6042595E-03 ( -11.23%)
   displ. norm   :     0.6905514 α      lambda       -0.6694531E-03
   maximum displ.:     0.2830349 α      in ANC's #13, #6, #10, ...

........................................................................
.............................. CYCLE   14 ..............................
........................................................................
   1   -229.0220691 -0.229022E+03  0.706E-02    2.30       0.0  T
   2   -229.0220730 -0.391594E-05  0.405E-02    2.30       1.0  T
   3   -229.0220676  0.535113E-05  0.749E-03    2.30       1.1  T
   4   -229.0220735 -0.584787E-05  0.328E-03    2.30       2.6  T
   5   -229.0220742 -0.688935E-06  0.116E-03    2.30       7.3  T
   6   -229.0220743 -0.109755E-06  0.444E-04    2.30      19.0  T
   7   -229.0220743 -0.184759E-07  0.185E-04    2.30      45.6  T
     SCC iter.                  ...        0 min,  0.127 sec
     gradient                   ...        0 min,  0.059 sec
 * total energy  :  -224.8948327 Eh     change       -0.5524790E-03 Eh
   gradient norm :     0.0053221 Eh/α   predicted    -0.4943495E-03 ( -10.52%)
   displ. norm   :     0.6367725 α      lambda       -0.5228756E-03
   maximum displ.:     0.2749596 α      in ANC's #6, #13, #10, ...

........................................................................
.............................. CYCLE   15 ..............................
........................................................................
   1   -229.0226566 -0.229023E+03  0.681E-02    2.30       0.0  T
   2   -229.0226593 -0.273391E-05  0.390E-02    2.29       1.0  T
   3   -229.0226560  0.336192E-05  0.619E-03    2.29       1.4  T
   4   -229.0226596 -0.367456E-05  0.299E-03    2.29       2.8  T
   5   -229.0226602 -0.596107E-06  0.997E-04    2.29       8.5  T
   6   -229.0226603 -0.897459E-07  0.376E-04    2.29      22.5  T
     SCC iter.                  ...        0 min,  0.123 sec
     gradient                   ...        0 min,  0.061 sec
 * total energy  :  -224.8952643 Eh     change       -0.4315344E-03 Eh
   gradient norm :     0.0061603 Eh/α   predicted    -0.3674499E-03 ( -14.85%)
   displ. norm   :     0.5926745 α      lambda       -0.4607182E-03
   maximum displ.:     0.2720827 α      in ANC's #6, #10, #13, ...

........................................................................
.............................. CYCLE   16 ..............................
........................................................................
   1   -229.0248445 -0.229025E+03  0.681E-02    2.29       0.0  T
   2   -229.0248465 -0.197417E-05  0.390E-02    2.29       1.0  T
   3   -229.0248448  0.171888E-05  0.518E-03    2.29       1.6  T
   4   -229.0248465 -0.174405E-05  0.286E-03    2.29       3.0  T
   5   -229.0248472 -0.662881E-06  0.864E-04    2.29       9.8  T
   6   -229.0248473 -0.901160E-07  0.283E-04    2.29      29.9  T
     SCC iter.                  ...        0 min,  0.118 sec
     gradient                   ...        0 min,  0.060 sec
 * total energy  :  -224.8956529 Eh     change       -0.3886063E-03 Eh
   gradient norm :     0.0070435 Eh/α   predicted    -0.3112783E-03 ( -19.90%)
   displ. norm   :     0.6032446 α      lambda       -0.4789296E-03
   maximum displ.:     0.2887048 α      in ANC's #6, #10, #9, ...

........................................................................
.............................. CYCLE   17 ..............................
........................................................................
   1   -229.0262943 -0.229026E+03  0.743E-02    2.29       0.0  T
   2   -229.0262965 -0.219790E-05  0.425E-02    2.29       1.0  T
   3   -229.0262947  0.187595E-05  0.560E-03    2.29       1.5  T
   4   -229.0262961 -0.145758E-05  0.345E-03    2.29       2.5  T
   5   -229.0262973 -0.118538E-05  0.949E-04    2.29       8.9  T
   6   -229.0262974 -0.101959E-06  0.285E-04    2.29      29.7  T
   7   -229.0262974 -0.251489E-08  0.170E-04    2.29      49.6  T
     SCC iter.                  ...        0 min,  0.133 sec
     gradient                   ...        0 min,  0.061 sec
 * total energy  :  -224.8960612 Eh     change       -0.4083374E-03 Eh
   gradient norm :     0.0067705 Eh/α   predicted    -0.3266122E-03 ( -20.01%)
   displ. norm   :     0.6301546 α      lambda       -0.4965890E-03
   maximum displ.:     0.3099444 α      in ANC's #6, #10, #8, ...

........................................................................
.............................. CYCLE   18 ..............................
........................................................................
   1   -229.0277700 -0.229028E+03  0.809E-02    2.28       0.0  T
   2   -229.0277730 -0.299168E-05  0.462E-02    2.28       1.0  T
   3   -229.0277708  0.220684E-05  0.613E-03    2.28       1.4  T
   4   -229.0277726 -0.178754E-05  0.364E-03    2.28       2.3  T
   5   -229.0277739 -0.135781E-05  0.917E-04    2.28       9.2  T
   6   -229.0277740 -0.928555E-07  0.338E-04    2.28      25.0  T
   7   -229.0277740 -0.894568E-08  0.156E-04    2.28      54.3  T
     SCC iter.                  ...        0 min,  0.139 sec
     gradient                   ...        0 min,  0.062 sec
 * total energy  :  -224.8964785 Eh     change       -0.4173315E-03 Eh
   gradient norm :     0.0059768 Eh/α   predicted    -0.3468957E-03 ( -16.88%)
   displ. norm   :     0.6453816 α      lambda       -0.4600958E-03
   maximum displ.:     0.3249873 α      in ANC's #6, #8, #10, ...

........................................................................
.............................. CYCLE   19 ..............................
........................................................................
   1   -229.0265127 -0.229027E+03  0.824E-02    2.28       0.0  T
   2   -229.0265157 -0.305469E-05  0.471E-02    2.28       1.0  T
   3   -229.0265122  0.355796E-05  0.686E-03    2.28       1.2  T
   4   -229.0265155 -0.334059E-05  0.384E-03    2.28       2.2  T
   5   -229.0265168 -0.126488E-05  0.110E-03    2.28       7.7  T
   6   -229.0265169 -0.136341E-06  0.351E-04    2.28      24.1  T
   7   -229.0265169 -0.891580E-08  0.177E-04    2.28      47.8  T
     SCC iter.                  ...        0 min,  0.140 sec
     gradient                   ...        0 min,  0.062 sec
 * total energy  :  -224.8968633 Eh     change       -0.3847557E-03 Eh
   gradient norm :     0.0056875 Eh/α   predicted    -0.3258696E-03 ( -15.30%)
   displ. norm   :     0.6310050 α      lambda       -0.4214273E-03
   maximum displ.:     0.3236529 α      in ANC's #6, #8, #10, ...

........................................................................
.............................. CYCLE   20 ..............................
........................................................................
   1   -229.0279819 -0.229028E+03  0.811E-02    2.28       0.0  T
   2   -229.0279843 -0.242796E-05  0.464E-02    2.28       1.0  T
   3   -229.0279822  0.216072E-05  0.595E-03    2.28       1.4  T
   4   -229.0279842 -0.206282E-05  0.332E-03    2.28       2.5  T
   5   -229.0279852 -0.988761E-06  0.801E-04    2.28      10.5  T
   6   -229.0279853 -0.767189E-07  0.269E-04    2.28      31.4  T
     SCC iter.                  ...        0 min,  0.119 sec
     gradient                   ...        0 min,  0.062 sec
 * total energy  :  -224.8972181 Eh     change       -0.3548573E-03 Eh
   gradient norm :     0.0060542 Eh/α   predicted    -0.2946142E-03 ( -16.98%)
   displ. norm   :     0.6550003 α      lambda       -0.4138462E-03
   maximum displ.:     0.3408317 α      in ANC's #6, #8, #3, ...
 * RMSD in coord.:     0.7614256 α      energy gain  -0.7281408E-01 Eh

generating ANC from model Hessian ...
Using Lindh-Hessian (1995)
 Shifting diagonal of input Hessian by   1.003747295434404E-002
 Lowest  eigenvalues of input Hessian
    0.010000    0.000000    0.000000    0.000000    0.000000    0.000000
    0.000000    0.010088    0.010098    0.010137    0.010173    0.010194
    0.010231    0.010274    0.010317    0.010418    0.010454    0.010568
 Highest eigenvalues
    2.102080    2.105963    2.116657    2.118874    2.119887    2.127363
 

........................................................................
.............................. CYCLE   21 ..............................
........................................................................
   1   -229.0256880 -0.229026E+03  0.813E-02    2.28       0.0  T
   2   -229.0256902 -0.224192E-05  0.467E-02    2.28       1.0  T
   3   -229.0256885  0.174502E-05  0.558E-03    2.28       1.5  T
   4   -229.0256902 -0.168745E-05  0.314E-03    2.28       2.7  T
   5   -229.0256910 -0.830131E-06  0.921E-04    2.28       9.2  T
   6   -229.0256911 -0.110979E-06  0.271E-04    2.28      31.2  T
     SCC iter.                  ...        0 min,  0.112 sec
     gradient                   ...        0 min,  0.060 sec
 * total energy  :  -224.8975735 Eh     change       -0.3553563E-03 Eh
   gradient norm :     0.0063007 Eh/α   predicted     0.0000000E+00 (-100.00%)
   displ. norm   :     0.0860055 α      lambda       -0.1044688E-03
   maximum displ.:     0.0344942 α      in ANC's #7, #31, #8, ...

........................................................................
.............................. CYCLE   22 ..............................
........................................................................
   1   -229.0275752 -0.229028E+03  0.156E-02    2.28       0.0  T
   2   -229.0275756 -0.324017E-06  0.902E-03    2.28       1.0  T
   3   -229.0275746  0.922962E-06  0.256E-03    2.28       3.3  T
   4   -229.0275757 -0.102913E-05  0.780E-04    2.28      10.8  T
   5   -229.0275757 -0.455710E-07  0.314E-04    2.28      26.9  T
   6   -229.0275757 -0.758709E-08  0.128E-04    2.28      65.8  T
     SCC iter.                  ...        0 min,  0.112 sec
     gradient                   ...        0 min,  0.062 sec
 * total energy  :  -224.8976908 Eh     change       -0.1172866E-03 Eh
   gradient norm :     0.0032133 Eh/α   predicted    -0.6921587E-04 ( -40.99%)
   displ. norm   :     0.3025739 α      lambda       -0.3240123E-03
   maximum displ.:     0.1250229 α      in ANC's #7, #8, #3, ...

........................................................................
.............................. CYCLE   23 ..............................
........................................................................
   1   -229.0300751 -0.229030E+03  0.488E-02    2.29       0.0  T
   2   -229.0300772 -0.206382E-05  0.282E-02    2.29       1.0  T
   3   -229.0300720  0.514256E-05  0.624E-03    2.29       1.4  T
   4   -229.0300777 -0.567175E-05  0.200E-03    2.29       4.2  T
   5   -229.0300780 -0.292974E-06  0.833E-04    2.29      10.1  T
   6   -229.0300781 -0.594234E-07  0.319E-04    2.29      26.5  T
     SCC iter.                  ...        0 min,  0.114 sec
     gradient                   ...        0 min,  0.061 sec
 * total energy  :  -224.8979110 Eh     change       -0.2201683E-03 Eh
   gradient norm :     0.0045720 Eh/α   predicted    -0.1768422E-03 ( -19.68%)
   displ. norm   :     0.2672523 α      lambda       -0.1623152E-03
   maximum displ.:     0.1182749 α      in ANC's #7, #8, #3, ...

........................................................................
.............................. CYCLE   24 ..............................
........................................................................
   1   -229.0300406 -0.229030E+03  0.384E-02    2.29       0.0  T
   2   -229.0300412 -0.673820E-06  0.222E-02    2.29       1.0  T
   3   -229.0300401  0.116503E-05  0.327E-03    2.29       2.6  T
   4   -229.0300414 -0.128227E-05  0.135E-03    2.29       6.2  T
   5   -229.0300415 -0.123700E-06  0.514E-04    2.29      16.4  T
   6   -229.0300415 -0.275430E-07  0.186E-04    2.29      45.3  T
     SCC iter.                  ...        0 min,  0.127 sec
     gradient                   ...        0 min,  0.060 sec
 * total energy  :  -224.8980415 Eh     change       -0.1305881E-03 Eh
   gradient norm :     0.0066373 Eh/α   predicted    -0.8695440E-04 ( -33.41%)
   displ. norm   :     0.3766680 α      lambda       -0.2211710E-03
   maximum displ.:     0.1718073 α      in ANC's #7, #8, #3, ...

........................................................................
.............................. CYCLE   25 ..............................
........................................................................
   1   -229.0289007 -0.229029E+03  0.507E-02    2.29       0.0  T
   2   -229.0289014 -0.783859E-06  0.293E-02    2.29       1.0  T
   3   -229.0289000  0.144387E-05  0.392E-03    2.29       2.2  T
   4   -229.0289015 -0.152990E-05  0.193E-03    2.29       4.4  T
   5   -229.0289018 -0.235778E-06  0.689E-04    2.29      12.3  T
   6   -229.0289018 -0.608197E-07  0.184E-04    2.29      45.9  T
     SCC iter.                  ...        0 min,  0.119 sec
     gradient                   ...        0 min,  0.059 sec
 * total energy  :  -224.8982281 Eh     change       -0.1865384E-03 Eh
   gradient norm :     0.0063595 Eh/α   predicted    -0.1262758E-03 ( -32.31%)
   displ. norm   :     0.4857760 α      lambda       -0.2915049E-03
   maximum displ.:     0.2296315 α      in ANC's #7, #8, #3, ...

........................................................................
.............................. CYCLE   26 ..............................
........................................................................
   1   -229.0270777 -0.229027E+03  0.621E-02    2.29       0.0  T
   2   -229.0270790 -0.137227E-05  0.357E-02    2.29       1.0  T
   3   -229.0270759  0.310806E-05  0.555E-03    2.29       1.5  T
   4   -229.0270792 -0.325452E-05  0.266E-03    2.29       3.2  T
   5   -229.0270796 -0.433284E-06  0.921E-04    2.29       9.2  T
   6   -229.0270797 -0.109157E-06  0.262E-04    2.29      32.3  T
     SCC iter.                  ...        0 min,  0.120 sec
     gradient                   ...        0 min,  0.060 sec
 * total energy  :  -224.8984718 Eh     change       -0.2437359E-03 Eh
   gradient norm :     0.0041295 Eh/α   predicted    -0.1801551E-03 ( -26.09%)
   displ. norm   :     0.5394789 α      lambda       -0.3115686E-03
   maximum displ.:     0.2627922 α      in ANC's #7, #8, #3, ...

........................................................................
.............................. CYCLE   27 ..............................
........................................................................
   1   -229.0258161 -0.229026E+03  0.670E-02    2.28       0.0  T
   2   -229.0258181 -0.195100E-05  0.385E-02    2.28       1.0  T
   3   -229.0258136  0.448457E-05  0.650E-03    2.28       1.3  T
   4   -229.0258182 -0.462965E-05  0.305E-03    2.28       2.8  T
   5   -229.0258188 -0.632749E-06  0.106E-03    2.28       8.0  T
   6   -229.0258190 -0.132887E-06  0.308E-04    2.28      27.4  T
   7   -229.0258190 -0.613895E-08  0.159E-04    2.28      53.3  T
     SCC iter.                  ...        0 min,  0.140 sec
     gradient                   ...        0 min,  0.061 sec
 * total energy  :  -224.8987351 Eh     change       -0.2632969E-03 Eh
   gradient norm :     0.0042429 Eh/α   predicted    -0.2011598E-03 ( -23.60%)
   displ. norm   :     0.5718715 α      lambda       -0.3317712E-03
   maximum displ.:     0.2847737 α      in ANC's #7, #8, #3, ...

........................................................................
.............................. CYCLE   28 ..............................
........................................................................
   1   -229.0257684 -0.229026E+03  0.698E-02    2.28       0.0  T
   2   -229.0257706 -0.226208E-05  0.401E-02    2.28       1.0  T
   3   -229.0257655  0.508042E-05  0.690E-03    2.28       1.2  T
   4   -229.0257708 -0.526994E-05  0.317E-03    2.28       2.7  T
   5   -229.0257715 -0.685327E-06  0.110E-03    2.28       7.7  T
   6   -229.0257716 -0.142642E-06  0.318E-04    2.28      26.6  T
   7   -229.0257716 -0.749768E-08  0.152E-04    2.28      55.6  T
     SCC iter.                  ...        0 min,  0.133 sec
     gradient                   ...        0 min,  0.060 sec
 * total energy  :  -224.8990236 Eh     change       -0.2884414E-03 Eh
   gradient norm :     0.0066971 Eh/α   predicted    -0.2201362E-03 ( -23.68%)
   displ. norm   :     0.6245614 α      lambda       -0.3841791E-03
   maximum displ.:     0.3154545 α      in ANC's #7, #8, #3, ...

........................................................................
.............................. CYCLE   29 ..............................
........................................................................
   1   -229.0269309 -0.229027E+03  0.754E-02    2.28       0.0  T
   2   -229.0269331 -0.224512E-05  0.434E-02    2.28       1.0  T
   3   -229.0269282  0.494627E-05  0.689E-03    2.28       1.2  T
   4   -229.0269333 -0.512444E-05  0.328E-03    2.28       2.6  T
   5   -229.0269341 -0.744168E-06  0.108E-03    2.28       7.9  T
   6   -229.0269342 -0.141913E-06  0.291E-04    2.28      29.0  T
   7   -229.0269342 -0.551591E-08  0.150E-04    2.28      56.5  T
     SCC iter.                  ...        0 min,  0.135 sec
     gradient                   ...        0 min,  0.061 sec
 * total energy  :  -224.8993632 Eh     change       -0.3396671E-03 Eh
   gradient norm :     0.0078905 Eh/α   predicted    -0.2670207E-03 ( -21.39%)
   displ. norm   :     0.6843847 α      lambda       -0.4376849E-03
   maximum displ.:     0.3499430 α      in ANC's #7, #8, #3, ...

........................................................................
.............................. CYCLE   30 ..............................
........................................................................
   1   -229.0286227 -0.229029E+03  0.810E-02    2.28       0.0  T
   2   -229.0286248 -0.214618E-05  0.466E-02    2.28       1.0  T
   3   -229.0286209  0.392012E-05  0.657E-03    2.28       1.3  T
   4   -229.0286249 -0.397318E-05  0.342E-03    2.28       2.5  T
   5   -229.0286258 -0.858209E-06  0.100E-03    2.28       8.4  T
   6   -229.0286259 -0.130664E-06  0.259E-04    2.28      32.6  T
   7   -229.0286259 -0.255406E-08  0.155E-04    2.28      54.5  T
     SCC iter.                  ...        0 min,  0.129 sec
     gradient                   ...        0 min,  0.062 sec
 * total energy  :  -224.8997521 Eh     change       -0.3888254E-03 Eh
   gradient norm :     0.0068747 Eh/α   predicted    -0.3213448E-03 ( -17.35%)
   displ. norm   :     0.7339982 α      lambda       -0.4596401E-03
   maximum displ.:     0.3796676 α      in ANC's #7, #8, #3, ...

........................................................................
.............................. CYCLE   31 ..............................
........................................................................
   1   -229.0298915 -0.229030E+03  0.840E-02    2.28       0.0  T
   2   -229.0298939 -0.246271E-05  0.483E-02    2.28       1.0  T
   3   -229.0298911  0.287311E-05  0.629E-03    2.28       1.3  T
   4   -229.0298938 -0.274498E-05  0.358E-03    2.28       2.4  T
   5   -229.0298948 -0.103484E-05  0.103E-03    2.28       8.2  T
   6   -229.0298950 -0.128656E-06  0.274E-04    2.28      30.9  T
   7   -229.0298950 -0.309268E-08  0.157E-04    2.28      53.8  T
     SCC iter.                  ...        0 min,  0.141 sec
     gradient                   ...        0 min,  0.059 sec
 * total energy  :  -224.9001630 Eh     change       -0.4109116E-03 Eh
   gradient norm :     0.0046416 Eh/α   predicted    -0.3536511E-03 ( -13.93%)
   displ. norm   :     0.7677070 α      lambda       -0.4580138E-03
   maximum displ.:     0.4006433 α      in ANC's #7, #3, #8, ...

........................................................................
.............................. CYCLE   32 ..............................
........................................................................
   1   -229.0307311 -0.229031E+03  0.844E-02    2.28       0.0  T
   2   -229.0307341 -0.299811E-05  0.484E-02    2.28       1.0  T
   3   -229.0307315  0.261953E-05  0.638E-03    2.28       1.3  T
   4   -229.0307341 -0.255830E-05  0.357E-03    2.28       2.4  T
   5   -229.0307351 -0.994279E-06  0.110E-03    2.28       7.7  T
   6   -229.0307352 -0.140062E-06  0.312E-04    2.28      27.1  T
   7   -229.0307352 -0.666790E-08  0.152E-04    2.28      55.5  T
     SCC iter.                  ...        0 min,  0.141 sec
     gradient                   ...        0 min,  0.062 sec
 * total energy  :  -224.9005771 Eh     change       -0.4141437E-03 Eh
   gradient norm :     0.0040611 Eh/α   predicted    -0.3639776E-03 ( -12.11%)
   displ. norm   :     0.7980979 α      lambda       -0.4546703E-03
   maximum displ.:     0.4188341 α      in ANC's #7, #3, #8, ...

........................................................................
.............................. CYCLE   33 ..............................
........................................................................
   1   -229.0307166 -0.229031E+03  0.846E-02    2.28       0.0  T
   2   -229.0307198 -0.317057E-05  0.485E-02    2.28       1.0  T
   3   -229.0307169  0.286440E-05  0.651E-03    2.28       1.3  T
   4   -229.0307197 -0.279792E-05  0.362E-03    2.28       2.3  T
   5   -229.0307208 -0.104731E-05  0.112E-03    2.28       7.6  T
   6   -229.0307209 -0.143226E-06  0.331E-04    2.28      25.5  T
   7   -229.0307209 -0.847078E-08  0.154E-04    2.28      54.8  T
     SCC iter.                  ...        0 min,  0.137 sec
     gradient                   ...        0 min,  0.060 sec
 * total energy  :  -224.9009945 Eh     change       -0.4174298E-03 Eh
   gradient norm :     0.0052934 Eh/α   predicted    -0.3721388E-03 ( -10.85%)
   displ. norm   :     0.8079922 α      lambda       -0.4631953E-03
   maximum displ.:     0.4265547 α      in ANC's #7, #3, #8, ...

........................................................................
.............................. CYCLE   34 ..............................
........................................................................
   1   -229.0315151 -0.229032E+03  0.819E-02    2.28       0.0  T
   2   -229.0315179 -0.282682E-05  0.469E-02    2.28       1.0  T
   3   -229.0315152  0.268549E-05  0.628E-03    2.28       1.3  T
   4   -229.0315178 -0.256643E-05  0.352E-03    2.28       2.4  T
   5   -229.0315189 -0.104901E-05  0.103E-03    2.28       8.2  T
   6   -229.0315190 -0.124513E-06  0.313E-04    2.28      27.0  T
   7   -229.0315190 -0.719876E-08  0.154E-04    2.28      55.0  T
     SCC iter.                  ...        0 min,  0.130 sec
     gradient                   ...        0 min,  0.062 sec
 * total energy  :  -224.9014190 Eh     change       -0.4244657E-03 Eh
   gradient norm :     0.0059521 Eh/α   predicted    -0.3827971E-03 (  -9.82%)
   displ. norm   :     0.8356720 α      lambda       -0.4642757E-03
   maximum displ.:     0.4429828 α      in ANC's #7, #3, #8, ...

........................................................................
.............................. CYCLE   35 ..............................
........................................................................
   1   -229.0296190 -0.229030E+03  0.840E-02    2.28       0.0  T
   2   -229.0296215 -0.251138E-05  0.482E-02    2.28       1.0  T
   3   -229.0296188  0.266186E-05  0.620E-03    2.28       1.4  T
   4   -229.0296212 -0.239447E-05  0.370E-03    2.28       2.3  T
   5   -229.0296224 -0.121693E-05  0.966E-04    2.28       8.8  T
   6   -229.0296225 -0.118831E-06  0.280E-04    2.28      30.2  T
   7   -229.0296225 -0.220817E-08  0.166E-04    2.28      50.8  T
     SCC iter.                  ...        0 min,  0.139 sec
     gradient                   ...        0 min,  0.059 sec
 * total energy  :  -224.9018446 Eh     change       -0.4256265E-03 Eh
   gradient norm :     0.0055821 Eh/α   predicted    -0.3942540E-03 (  -7.37%)
   displ. norm   :     0.7891488 α      lambda       -0.5038961E-03
   maximum displ.:     0.4186777 α      in ANC's #7, #3, #8, ...

........................................................................
.............................. CYCLE   36 ..............................
........................................................................
   1   -229.0369580 -0.229037E+03  0.731E-02    2.28       0.0  T
   2   -229.0369605 -0.251311E-05  0.420E-02    2.28       1.0  T
   3   -229.0369569  0.354224E-05  0.676E-03    2.28       1.3  T
   4   -229.0369611 -0.419654E-05  0.284E-03    2.28       3.0  T
   5   -229.0369615 -0.347021E-06  0.969E-04    2.28       8.7  T
   6   -229.0369616 -0.109964E-06  0.305E-04    2.28      27.7  T
     SCC iter.                  ...        0 min,  0.119 sec
     gradient                   ...        0 min,  0.061 sec
 * total energy  :  -224.9022254 Eh     change       -0.3807331E-03 Eh
   gradient norm :     0.0061599 Eh/α   predicted    -0.4088509E-03 (   7.39%)
   displ. norm   :     0.8430944 α      lambda       -0.4812311E-03
   maximum displ.:     0.4490229 α      in ANC's #7, #3, #8, ...

........................................................................
.............................. CYCLE   37 ..............................
........................................................................
   1   -229.0282487 -0.229028E+03  0.872E-02    2.27       0.0  T
   2   -229.0282519 -0.325194E-05  0.501E-02    2.27       1.0  T
   3   -229.0282423  0.960671E-05  0.942E-03    2.27       1.0  T
   4   -229.0282527 -0.104310E-04  0.393E-03    2.27       2.2  T
   5   -229.0282535 -0.714096E-06  0.160E-03    2.27       5.3  T
   6   -229.0282538 -0.322284E-06  0.378E-04    2.27      22.4  T
   7   -229.0282538 -0.632966E-08  0.236E-04    2.27      35.9  T
     SCC iter.                  ...        0 min,  0.141 sec
     gradient                   ...        0 min,  0.061 sec
 * total energy  :  -224.9026177 Eh     change       -0.3922985E-03 Eh
   gradient norm :     0.0061916 Eh/α   predicted    -0.4116498E-03 (   4.93%)
   displ. norm   :     0.7673313 α      lambda       -0.3780588E-03
   maximum displ.:     0.4134826 α      in ANC's #7, #3, #8, ...

........................................................................
.............................. CYCLE   38 ..............................
........................................................................
   1   -229.0262837 -0.229026E+03  0.720E-02    2.27       0.0  T
   2   -229.0262857 -0.205209E-05  0.412E-02    2.27       1.0  T
   3   -229.0262824  0.329679E-05  0.614E-03    2.27       1.4  T
   4   -229.0262855 -0.308486E-05  0.348E-03    2.27       2.4  T
   5   -229.0262865 -0.101434E-05  0.971E-04    2.27       8.7  T
   6   -229.0262867 -0.119419E-06  0.241E-04    2.27      35.1  T
   7   -229.0262867 -0.249429E-08  0.137E-04    2.27      61.6  T
     SCC iter.                  ...        0 min,  0.129 sec
     gradient                   ...        0 min,  0.061 sec
 * total energy  :  -224.9029640 Eh     change       -0.3463202E-03 Eh
   gradient norm :     0.0071029 Eh/α   predicted    -0.3003311E-03 ( -13.28%)
   displ. norm   :     0.6930877 α      lambda       -0.5093050E-03
   maximum displ.:     0.3679107 α      in ANC's #7, #3, #8, ...

........................................................................
.............................. CYCLE   39 ..............................
........................................................................
   1   -229.0323681 -0.229032E+03  0.659E-02    2.27       0.0  T
   2   -229.0323707 -0.256564E-05  0.379E-02    2.27       1.0  T
   3   -229.0323618  0.882364E-05  0.820E-03    2.27       1.0  T
   4   -229.0323715 -0.968609E-05  0.300E-03    2.27       2.8  T
   5   -229.0323719 -0.364841E-06  0.146E-03    2.27       5.8  T
   6   -229.0323722 -0.252463E-06  0.305E-04    2.27      27.7  T
   7   -229.0323722 -0.612633E-08  0.156E-04    2.27      54.0  T
     SCC iter.                  ...        0 min,  0.144 sec
     gradient                   ...        0 min,  0.063 sec
 * total energy  :  -224.9033743 Eh     change       -0.4102848E-03 Eh
   gradient norm :     0.0054974 Eh/α   predicted    -0.3769808E-03 (  -8.12%)
   displ. norm   :     0.8529216 α      lambda       -0.4270181E-03
   maximum displ.:     0.4563512 α      in ANC's #7, #3, #8, ...

........................................................................
.............................. CYCLE   40 ..............................
........................................................................
   1   -229.0312867 -0.229031E+03  0.791E-02    2.27       0.0  T
   2   -229.0312892 -0.254040E-05  0.453E-02    2.27       1.0  T
   3   -229.0312835  0.566898E-05  0.741E-03    2.27       1.1  T
   4   -229.0312892 -0.566752E-05  0.380E-03    2.27       2.2  T
   5   -229.0312903 -0.110389E-05  0.122E-03    2.27       6.9  T
   6   -229.0312905 -0.171488E-06  0.274E-04    2.27      30.9  T
   7   -229.0312905 -0.521317E-08  0.149E-04    2.27      56.7  T
     SCC iter.                  ...        0 min,  0.143 sec
     gradient                   ...        0 min,  0.063 sec
 * total energy  :  -224.9037502 Eh     change       -0.3758845E-03 Eh
   gradient norm :     0.0055579 Eh/α   predicted    -0.3688357E-03 (  -1.88%)
   displ. norm   :     0.8078929 α      lambda       -0.4309643E-03
   maximum displ.:     0.4276558 α      in ANC's #7, #3, #8, ...

........................................................................
.............................. CYCLE   41 ..............................
........................................................................
   1   -229.0337412 -0.229034E+03  0.745E-02    2.27       0.0  T
   2   -229.0337439 -0.275062E-05  0.426E-02    2.27       1.0  T
   3   -229.0337399  0.397340E-05  0.684E-03    2.27       1.2  T
   4   -229.0337442 -0.426328E-05  0.331E-03    2.27       2.6  T
   5   -229.0337449 -0.658527E-06  0.131E-03    2.27       6.4  T
   6   -229.0337451 -0.224898E-06  0.290E-04    2.27      29.2  T
   7   -229.0337451 -0.474896E-08  0.162E-04    2.27      52.3  T
     SCC iter.                  ...        0 min,  0.133 sec
     gradient                   ...        0 min,  0.061 sec
 * total energy  :  -224.9041128 Eh     change       -0.3626342E-03 Eh
   gradient norm :     0.0044456 Eh/α   predicted    -0.3561312E-03 (  -1.79%)
   displ. norm   :     0.8491813 α      lambda       -0.3875042E-03
   maximum displ.:     0.4470801 α      in ANC's #7, #3, #8, ...

........................................................................
.............................. CYCLE   42 ..............................
........................................................................
   1   -229.0320387 -0.229032E+03  0.795E-02    2.27       0.0  T
   2   -229.0320415 -0.274407E-05  0.457E-02    2.27       1.0  T
   3   -229.0320382  0.329247E-05  0.629E-03    2.27       1.3  T
   4   -229.0320414 -0.322902E-05  0.345E-03    2.27       2.4  T
   5   -229.0320424 -0.989132E-06  0.125E-03    2.27       6.8  T
   6   -229.0320426 -0.181093E-06  0.298E-04    2.27      28.3  T
   7   -229.0320426 -0.553482E-08  0.157E-04    2.27      53.9  T
     SCC iter.                  ...        0 min,  0.143 sec
     gradient                   ...        0 min,  0.062 sec
 * total energy  :  -224.9044480 Eh     change       -0.3352466E-03 Eh
   gradient norm :     0.0050768 Eh/α   predicted    -0.3334744E-03 (  -0.53%)
   displ. norm   :     0.7981714 α      lambda       -0.3678507E-03
   maximum displ.:     0.4105278 α      in ANC's #7, #3, #8, ...
 * RMSD in coord.:     1.1562748 α      energy gain  -0.7229884E-02 Eh

generating ANC from model Hessian ...
Using Lindh-Hessian (1995)
 Shifting diagonal of input Hessian by   1.005229013935908E-002
 Lowest  eigenvalues of input Hessian
    0.010000    0.000000    0.000000    0.000000    0.000000    0.000000
    0.000000    0.010110    0.010113    0.010164    0.010194    0.010224
    0.010290    0.010323    0.010369    0.010478    0.010551    0.010690
 Highest eigenvalues
    2.100378    2.105392    2.115700    2.119422    2.120208    2.133486
 

........................................................................
.............................. CYCLE   43 ..............................
........................................................................
   1   -229.0335106 -0.229034E+03  0.742E-02    2.27       0.0  T
   2   -229.0335131 -0.256946E-05  0.425E-02    2.26       1.0  T
   3   -229.0335099  0.321939E-05  0.610E-03    2.26       1.4  T
   4   -229.0335128 -0.291764E-05  0.351E-03    2.26       2.4  T
   5   -229.0335140 -0.119826E-05  0.109E-03    2.26       7.8  T
   6   -229.0335142 -0.132774E-06  0.287E-04    2.26      29.5  T
   7   -229.0335142 -0.457649E-08  0.152E-04    2.26      55.8  T
     SCC iter.                  ...        0 min,  0.142 sec
     gradient                   ...        0 min,  0.063 sec
 * total energy  :  -224.9047650 Eh     change       -0.3169293E-03 Eh
   gradient norm :     0.0051467 Eh/α   predicted     0.0000000E+00 (-100.00%)
   displ. norm   :     0.0654854 α      lambda       -0.8752281E-04
   maximum displ.:     0.0225968 α      in ANC's #8, #16, #21, ...

........................................................................
.............................. CYCLE   44 ..............................
........................................................................
   1   -229.0361619 -0.229036E+03  0.126E-02    2.27       0.0  T
   2   -229.0361621 -0.211456E-06  0.745E-03    2.27       1.1  T
   3   -229.0361613  0.757548E-06  0.252E-03    2.27       3.4  T
   4   -229.0361622 -0.860716E-06  0.571E-04    2.27      14.8  T
   5   -229.0361622 -0.124718E-07  0.309E-04    2.27      27.4  T
     SCC iter.                  ...        0 min,  0.104 sec
     gradient                   ...        0 min,  0.063 sec
 * total energy  :  -224.9048391 Eh     change       -0.7411706E-04 Eh
   gradient norm :     0.0023778 Eh/α   predicted    -0.4631781E-04 ( -37.51%)
   displ. norm   :     0.1897710 α      lambda       -0.1509057E-03
   maximum displ.:     0.0709019 α      in ANC's #8, #16, #9, ...

........................................................................
.............................. CYCLE   45 ..............................
........................................................................
   1   -229.0393796 -0.229039E+03  0.299E-02    2.27       0.0  T
   2   -229.0393804 -0.833919E-06  0.174E-02    2.27       1.0  T
   3   -229.0393784  0.202895E-05  0.411E-03    2.27       2.1  T
   4   -229.0393807 -0.230103E-05  0.110E-03    2.27       7.7  T
   5   -229.0393808 -0.609753E-07  0.532E-04    2.27      15.9  T
   6   -229.0393808 -0.238569E-07  0.188E-04    2.27      44.9  T
     SCC iter.                  ...        0 min,  0.127 sec
     gradient                   ...        0 min,  0.063 sec
 * total energy  :  -224.9049443 Eh     change       -0.1051924E-03 Eh
   gradient norm :     0.0030535 Eh/α   predicted    -0.7817074E-04 ( -25.69%)
   displ. norm   :     0.2157052 α      lambda       -0.1025573E-03
   maximum displ.:     0.0866539 α      in ANC's #8, #16, #9, ...

........................................................................
.............................. CYCLE   46 ..............................
........................................................................
   1   -229.0400365 -0.229040E+03  0.307E-02    2.27       0.0  T
   2   -229.0400370 -0.513455E-06  0.178E-02    2.27       1.0  T
   3   -229.0400363  0.740672E-06  0.271E-03    2.27       3.1  T
   4   -229.0400371 -0.835080E-06  0.109E-03    2.27       7.8  T
   5   -229.0400372 -0.794971E-07  0.424E-04    2.27      19.9  T
   6   -229.0400372 -0.163532E-07  0.151E-04    2.27      55.8  T
     SCC iter.                  ...        0 min,  0.119 sec
     gradient                   ...        0 min,  0.063 sec
 * total energy  :  -224.9050277 Eh     change       -0.8345424E-04 Eh
   gradient norm :     0.0047614 Eh/α   predicted    -0.5374619E-04 ( -35.60%)
   displ. norm   :     0.3490637 α      lambda       -0.1534063E-03
   maximum displ.:     0.1462869 α      in ANC's #8, #9, #10, ...

........................................................................
.............................. CYCLE   47 ..............................
........................................................................
   1   -229.0389675 -0.229039E+03  0.469E-02    2.27       0.0  T
   2   -229.0389684 -0.835900E-06  0.271E-02    2.27       1.0  T
   3   -229.0389673  0.107822E-05  0.340E-03    2.27       2.5  T
   4   -229.0389685 -0.118503E-05  0.167E-03    2.27       5.1  T
   5   -229.0389687 -0.224019E-06  0.541E-04    2.27      15.6  T
   6   -229.0389687 -0.324352E-07  0.187E-04    2.27      45.2  T
     SCC iter.                  ...        0 min,  0.121 sec
     gradient                   ...        0 min,  0.063 sec
 * total energy  :  -224.9051533 Eh     change       -0.1256194E-03 Eh
   gradient norm :     0.0052450 Eh/α   predicted    -0.8604990E-04 ( -31.50%)
   displ. norm   :     0.4280760 α      lambda       -0.1768034E-03
   maximum displ.:     0.1887484 α      in ANC's #8, #9, #10, ...

........................................................................
.............................. CYCLE   48 ..............................
........................................................................
   1   -229.0367642 -0.229037E+03  0.539E-02    2.27       0.0  T
   2   -229.0367653 -0.111021E-05  0.311E-02    2.27       1.0  T
   3   -229.0367639  0.143133E-05  0.407E-03    2.27       2.1  T
   4   -229.0367655 -0.158044E-05  0.205E-03    2.27       4.1  T
   5   -229.0367658 -0.298761E-06  0.693E-04    2.27      12.2  T
   6   -229.0367658 -0.568602E-07  0.198E-04    2.27      42.6  T
     SCC iter.                  ...        0 min,  0.124 sec
     gradient                   ...        0 min,  0.063 sec
 * total energy  :  -224.9052979 Eh     change       -0.1445841E-03 Eh
   gradient norm :     0.0045874 Eh/α   predicted    -0.1046044E-03 ( -27.65%)
   displ. norm   :     0.4411412 α      lambda       -0.1839554E-03
   maximum displ.:     0.2034397 α      in ANC's #8, #9, #10, ...

........................................................................
.............................. CYCLE   49 ..............................
........................................................................
   1   -229.0350956 -0.229035E+03  0.509E-02    2.27       0.0  T
   2   -229.0350970 -0.132990E-05  0.293E-02    2.27       1.0  T
   3   -229.0350955  0.143648E-05  0.418E-03    2.27       2.0  T
   4   -229.0350970 -0.151984E-05  0.216E-03    2.27       3.9  T
   5   -229.0350974 -0.355900E-06  0.761E-04    2.27      11.1  T
   6   -229.0350975 -0.618652E-07  0.225E-04    2.27      37.6  T
     SCC iter.                  ...        0 min,  0.123 sec
     gradient                   ...        0 min,  0.063 sec
 * total energy  :  -224.9054523 Eh     change       -0.1543611E-03 Eh
   gradient norm :     0.0039120 Eh/α   predicted    -0.1098816E-03 ( -28.82%)
   displ. norm   :     0.4790996 α      lambda       -0.2203668E-03
   maximum displ.:     0.2279872 α      in ANC's #8, #10, #9, ...

........................................................................
.............................. CYCLE   50 ..............................
........................................................................
   1   -229.0347322 -0.229035E+03  0.498E-02    2.27       0.0  T
   2   -229.0347339 -0.169533E-05  0.285E-02    2.27       1.0  T
   3   -229.0347325  0.137503E-05  0.429E-03    2.27       2.0  T
   4   -229.0347339 -0.137835E-05  0.231E-03    2.27       3.7  T
   5   -229.0347343 -0.439326E-06  0.832E-04    2.27      10.2  T
   6   -229.0347344 -0.686628E-07  0.259E-04    2.27      32.7  T
     SCC iter.                  ...        0 min,  0.121 sec
     gradient                   ...        0 min,  0.063 sec
 * total energy  :  -224.9056403 Eh     change       -0.1880361E-03 Eh
   gradient norm :     0.0047690 Eh/α   predicted    -0.1355298E-03 ( -27.92%)
   displ. norm   :     0.5606801 α      lambda       -0.2732875E-03
   maximum displ.:     0.2706223 α      in ANC's #8, #10, #9, ...

........................................................................
.............................. CYCLE   51 ..............................
........................................................................
   1   -229.0354737 -0.229035E+03  0.529E-02    2.27       0.0  T
   2   -229.0354755 -0.180860E-05  0.303E-02    2.27       1.0  T
   3   -229.0354735  0.197676E-05  0.476E-03    2.27       1.8  T
   4   -229.0354755 -0.196459E-05  0.250E-03    2.27       3.4  T
   5   -229.0354760 -0.534390E-06  0.916E-04    2.27       9.2  T
   6   -229.0354761 -0.863863E-07  0.267E-04    2.27      31.6  T
     SCC iter.                  ...        0 min,  0.124 sec
     gradient                   ...        0 min,  0.063 sec
 * total energy  :  -224.9058776 Eh     change       -0.2372405E-03 Eh
   gradient norm :     0.0066854 Eh/α   predicted    -0.1796011E-03 ( -24.30%)
   displ. norm   :     0.6450586 α      lambda       -0.3312057E-03
   maximum displ.:     0.3134626 α      in ANC's #8, #10, #9, ...

........................................................................
.............................. CYCLE   52 ..............................
........................................................................
   1   -229.0368551 -0.229037E+03  0.566E-02    2.27       0.0  T
   2   -229.0368567 -0.157545E-05  0.325E-02    2.27       1.0  T
   3   -229.0368531  0.357330E-05  0.567E-03    2.27       1.5  T
   4   -229.0368570 -0.386475E-05  0.250E-03    2.27       3.4  T
   5   -229.0368573 -0.369900E-06  0.101E-03    2.27       8.4  T
   6   -229.0368575 -0.122446E-06  0.229E-04    2.27      36.9  T
   7   -229.0368575 -0.310348E-08  0.128E-04    2.27      65.9  T
     SCC iter.                  ...        0 min,  0.141 sec
     gradient                   ...        0 min,  0.063 sec
 * total energy  :  -224.9061713 Eh     change       -0.2937686E-03 Eh
   gradient norm :     0.0077130 Eh/α   predicted    -0.2345157E-03 ( -20.17%)
   displ. norm   :     0.7045600 α      lambda       -0.3909906E-03
   maximum displ.:     0.3441951 α      in ANC's #8, #10, #9, ...

........................................................................
.............................. CYCLE   53 ..............................
........................................................................
   1   -229.0385376 -0.229039E+03  0.595E-02    2.26       0.0  T
   2   -229.0385393 -0.167478E-05  0.343E-02    2.26       1.0  T
   3   -229.0385338  0.548453E-05  0.651E-03    2.26       1.3  T
   4   -229.0385398 -0.607436E-05  0.249E-03    2.26       3.4  T
   5   -229.0385401 -0.246337E-06  0.115E-03    2.26       7.3  T
   6   -229.0385403 -0.169403E-06  0.219E-04    2.26      38.6  T
   7   -229.0385403 -0.235482E-08  0.130E-04    2.26      65.2  T
     SCC iter.                  ...        0 min,  0.138 sec
     gradient                   ...        0 min,  0.063 sec
 * total energy  :  -224.9065185 Eh     change       -0.3471908E-03 Eh
   gradient norm :     0.0066060 Eh/α   predicted    -0.2925408E-03 ( -15.74%)
   displ. norm   :     0.7359476 α      lambda       -0.4192207E-03
   maximum displ.:     0.3619231 α      in ANC's #8, #10, #1, ...

........................................................................
.............................. CYCLE   54 ..............................
........................................................................
   1   -229.0393291 -0.229039E+03  0.633E-02    2.26       0.0  T
   2   -229.0393317 -0.256634E-05  0.365E-02    2.26       1.0  T
   3   -229.0393253  0.640905E-05  0.720E-03    2.26       1.2  T
   4   -229.0393323 -0.697989E-05  0.279E-03    2.26       3.0  T
   5   -229.0393327 -0.456188E-06  0.125E-03    2.26       6.8  T
   6   -229.0393329 -0.177012E-06  0.309E-04    2.26      27.4  T
   7   -229.0393329 -0.628310E-08  0.143E-04    2.26      59.2  T
     SCC iter.                  ...        0 min,  0.147 sec
     gradient                   ...        0 min,  0.063 sec
 * total energy  :  -224.9068832 Eh     change       -0.3647146E-03 Eh
   gradient norm :     0.0037302 Eh/α   predicted    -0.3231401E-03 ( -11.40%)
   displ. norm   :     0.7323566 α      lambda       -0.3901877E-03
   maximum displ.:     0.3602869 α      in ANC's #8, #1, #10, ...

........................................................................
.............................. CYCLE   55 ..............................
........................................................................
   1   -229.0391996 -0.229039E+03  0.650E-02    2.25       0.0  T
   2   -229.0392026 -0.296535E-05  0.373E-02    2.25       1.0  T
   3   -229.0391981  0.448736E-05  0.641E-03    2.25       1.3  T
   4   -229.0392028 -0.471726E-05  0.295E-03    2.25       2.9  T
   5   -229.0392035 -0.697518E-06  0.119E-03    2.25       7.1  T
   6   -229.0392037 -0.157173E-06  0.350E-04    2.25      24.1  T
   7   -229.0392037 -0.941867E-08  0.140E-04    2.25      60.2  T
     SCC iter.                  ...        0 min,  0.142 sec
     gradient                   ...        0 min,  0.063 sec
 * total energy  :  -224.9072145 Eh     change       -0.3312804E-03 Eh
   gradient norm :     0.0038467 Eh/α   predicted    -0.2997357E-03 (  -9.52%)
   displ. norm   :     0.7038683 α      lambda       -0.3432652E-03
   maximum displ.:     0.3436063 α      in ANC's #8, #1, #10, ...

........................................................................
.............................. CYCLE   56 ..............................
........................................................................
   1   -229.0387458 -0.229039E+03  0.637E-02    2.25       0.0  T
   2   -229.0387482 -0.233467E-05  0.366E-02    2.25       1.0  T
   3   -229.0387458  0.235983E-05  0.544E-03    2.25       1.6  T
   4   -229.0387484 -0.259860E-05  0.268E-03    2.25       3.2  T
   5   -229.0387489 -0.502351E-06  0.971E-04    2.25       8.7  T
   6   -229.0387490 -0.106975E-06  0.292E-04    2.25      28.9  T
     SCC iter.                  ...        0 min,  0.124 sec
     gradient                   ...        0 min,  0.063 sec
 * total energy  :  -224.9075095 Eh     change       -0.2949555E-03 Eh
   gradient norm :     0.0066076 Eh/α   predicted    -0.2566786E-03 ( -12.98%)
   displ. norm   :     0.6631628 α      lambda       -0.3446201E-03
   maximum displ.:     0.3144196 α      in ANC's #8, #1, #3, ...

........................................................................
.............................. CYCLE   57 ..............................
........................................................................
   1   -229.0393314 -0.229039E+03  0.631E-02    2.25       0.0  T
   2   -229.0393332 -0.185249E-05  0.362E-02    2.25       1.0  T
   3   -229.0393309  0.229504E-05  0.547E-03    2.25       1.5  T
   4   -229.0393337 -0.271175E-05  0.250E-03    2.25       3.4  T
   5   -229.0393339 -0.277760E-06  0.937E-04    2.25       9.0  T
   6   -229.0393341 -0.117618E-06  0.223E-04    2.25      37.9  T
     SCC iter.                  ...        0 min,  0.120 sec
     gradient                   ...        0 min,  0.063 sec
 * total energy  :  -224.9078084 Eh     change       -0.2989215E-03 Eh
   gradient norm :     0.0078099 Eh/α   predicted    -0.2480904E-03 ( -17.00%)
   displ. norm   :     0.6960998 α      lambda       -0.3733758E-03
   maximum displ.:     0.3283785 α      in ANC's #8, #1, #3, ...

........................................................................
.............................. CYCLE   58 ..............................
........................................................................
   1   -229.0365171 -0.229037E+03  0.674E-02    2.25       0.0  T
   2   -229.0365197 -0.257209E-05  0.387E-02    2.25       1.0  T
   3   -229.0365162  0.349213E-05  0.629E-03    2.25       1.3  T
   4   -229.0365202 -0.399784E-05  0.278E-03    2.25       3.0  T
   5   -229.0365206 -0.400740E-06  0.111E-03    2.25       7.6  T
   6   -229.0365208 -0.142113E-06  0.306E-04    2.25      27.6  T
   7   -229.0365208 -0.810249E-08  0.144E-04    2.25      58.6  T
     SCC iter.                  ...        0 min,  0.143 sec
     gradient                   ...        0 min,  0.064 sec
 * total energy  :  -224.9081198 Eh     change       -0.3114118E-03 Eh
   gradient norm :     0.0066761 Eh/α   predicted    -0.2771577E-03 ( -11.00%)
   displ. norm   :     0.6130182 α      lambda       -0.4577881E-03
   maximum displ.:     0.2786499 α      in ANC's #1, #16, #8, ...

........................................................................
.............................. CYCLE   59 ..............................
........................................................................
   1   -229.0470553 -0.229047E+03  0.800E-02    2.26       0.0  T
   2   -229.0470607 -0.537227E-05  0.466E-02    2.26       1.0  T
   3   -229.0470368  0.238934E-04  0.143E-02    2.26       1.0  T
   4   -229.0470634 -0.265944E-04  0.342E-03    2.26       2.5  T
   5   -229.0470638 -0.375390E-06  0.194E-03    2.26       4.4  T
   6   -229.0470642 -0.407707E-06  0.611E-04    2.26      13.8  T
   7   -229.0470642 -0.224559E-07  0.321E-04    2.26      26.3  T
     SCC iter.                  ...        0 min,  0.141 sec
     gradient                   ...        0 min,  0.063 sec
 * total energy  :  -224.9082467 Eh     change       -0.1269196E-03 Eh
   gradient norm :     0.0075167 Eh/α   predicted    -0.3149122E-03 ( 148.12%)
   displ. norm   :     0.5397298 α      lambda       -0.4270053E-03
   maximum displ.:     0.2671758 α      in ANC's #8, #1, #10, ...

........................................................................
.............................. CYCLE   60 ..............................
........................................................................
   1   -229.0378442 -0.229038E+03  0.542E-02    2.25       0.0  T
   2   -229.0378462 -0.201462E-05  0.315E-02    2.25       1.0  T
   3   -229.0378385  0.772060E-05  0.818E-03    2.25       1.0  T
   4   -229.0378473 -0.873713E-05  0.221E-03    2.25       3.8  T
   5   -229.0378473 -0.669731E-07  0.135E-03    2.25       6.2  T
   6   -229.0378475 -0.216684E-06  0.336E-04    2.25      25.2  T
   7   -229.0378475 -0.614492E-08  0.201E-04    2.25      42.1  T
     SCC iter.                  ...        0 min,  0.139 sec
     gradient                   ...        0 min,  0.063 sec
 * total energy  :  -224.9085207 Eh     change       -0.2739756E-03 Eh
   gradient norm :     0.0042719 Eh/α   predicted    -0.2756986E-03 (   0.63%)
   displ. norm   :     0.5528142 α      lambda       -0.1690084E-03
   maximum displ.:     0.2643617 α      in ANC's #8, #1, #3, ...

........................................................................
.............................. CYCLE   61 ..............................
........................................................................
   1   -229.0357076 -0.229036E+03  0.488E-02    2.25       0.0  T
   2   -229.0357088 -0.116680E-05  0.280E-02    2.25       1.0  T
   3   -229.0357070  0.178634E-05  0.446E-03    2.25       1.9  T
   4   -229.0357091 -0.209070E-05  0.190E-03    2.25       4.4  T
   5   -229.0357092 -0.161860E-06  0.736E-04    2.25      11.5  T
   6   -229.0357093 -0.613431E-07  0.193E-04    2.25      43.9  T
     SCC iter.                  ...        0 min,  0.119 sec
     gradient                   ...        0 min,  0.063 sec
 * total energy  :  -224.9086585 Eh     change       -0.1377522E-03 Eh
   gradient norm :     0.0049863 Eh/α   predicted    -0.1103303E-03 ( -19.91%)
   displ. norm   :     0.4666443 α      lambda       -0.2075475E-03
   maximum displ.:     0.2283442 α      in ANC's #1, #8, #3, ...

........................................................................
.............................. CYCLE   62 ..............................
........................................................................
   1   -229.0387343 -0.229039E+03  0.431E-02    2.25       0.0  T
   2   -229.0387353 -0.958937E-06  0.250E-02    2.25       1.0  T
   3   -229.0387308  0.444524E-05  0.576E-03    2.25       1.5  T
   4   -229.0387358 -0.496402E-05  0.155E-03    2.25       5.5  T
   5   -229.0387358 -0.642474E-07  0.839E-04    2.25      10.1  T
   6   -229.0387359 -0.770741E-07  0.206E-04    2.25      41.0  T
     SCC iter.                  ...        0 min,  0.118 sec
     gradient                   ...        0 min,  0.063 sec
 * total energy  :  -224.9088220 Eh     change       -0.1635351E-03 Eh
   gradient norm :     0.0039089 Eh/α   predicted    -0.1263729E-03 ( -22.72%)
   displ. norm   :     0.5210025 α      lambda       -0.1885659E-03
   maximum displ.:     0.2674695 α      in ANC's #1, #8, #3, ...

[...]
    39  16 S    2.470 --    34 C    1.087    38 C    1.078
    40   6 C    3.989 --    41 C    1.459    38 C    1.391   110 H    0.969
                            43 C    0.107
    41   6 C    3.983 --    40 C    1.459    42 C    1.402   111 H    0.970
    42   6 C    3.989 --    43 C    1.473    41 C    1.402   112 H    0.971
    43   6 C    3.991 --    42 C    1.473    37 C    1.360   113 H    0.966
                            40 C    0.107
    44   6 C    3.980 --    45 C    1.834    33 C    1.060   114 H    0.955
    45   6 C    3.987 --    44 C    1.834    46 C    1.072   115 H    0.960
    46   6 C    3.986 --    51 C    1.407    47 C    1.349    45 C    1.072
    47   6 C    3.979 --    48 C    1.422    46 C    1.349   116 H    0.965
    48   6 C    3.987 --    47 C    1.422    49 C    1.327    59 C    1.052
    49   6 C    3.954 --    48 C    1.327    50 C    1.305    54 S    1.086
    50   6 C    3.986 --    51 C    1.366    49 C    1.305    52 C    1.123
    51   6 C    3.984 --    46 C    1.407    50 C    1.366   117 H    0.965
    52   6 C    3.986 --    58 C    1.361    53 C    1.302    50 C    1.123
    53   6 C    3.959 --    55 C    1.390    52 C    1.302    54 S    1.083
    54  16 S    2.485 --    49 C    1.086    53 C    1.083
    55   6 C    3.990 --    56 C    1.460    53 C    1.390   118 H    0.969
                            58 C    0.107
    56   6 C    3.983 --    55 C    1.460    57 C    1.401   119 H    0.970
    57   6 C    3.989 --    58 C    1.472    56 C    1.401   120 H    0.971
    58   6 C    3.991 --    57 C    1.472    52 C    1.361   121 H    0.966
                            55 C    0.107
    59   6 C    3.982 --    60 C    1.847    48 C    1.052   122 H    0.959
    60   6 C    3.987 --    59 C    1.847    61 C    1.058   123 H    0.960
    61   6 C    3.986 --    66 C    1.411    62 C    1.354    60 C    1.058
    62   6 C    3.975 --    63 C    1.415    61 C    1.354   124 H    0.963
    63   6 C    3.987 --    62 C    1.415    64 C    1.319    74 C    1.067
    64   6 C    3.954 --    63 C    1.319    65 C    1.311    69 S    1.086
    65   6 C    3.986 --    66 C    1.357    64 C    1.311    67 C    1.123
    66   6 C    3.985 --    61 C    1.411    65 C    1.357   125 H    0.965
    67   6 C    3.985 --    73 C    1.359    68 C    1.303    65 C    1.123
    68   6 C    3.958 --    70 C    1.388    67 C    1.303    69 S    1.083
    69  16 S    2.486 --    64 C    1.086    68 C    1.083
    70   6 C    3.989 --    71 C    1.461    68 C    1.388   126 H    0.969
                            73 C    0.107
    71   6 C    3.982 --    70 C    1.461    72 C    1.400   127 H    0.970
    72   6 C    3.989 --    73 C    1.474    71 C    1.400   128 H    0.971
    73   6 C    3.991 --    72 C    1.474    67 C    1.359   129 H    0.966
                            70 C    0.107
    74   6 C    3.980 --    75 C    1.811    63 C    1.067   130 H    0.959
    75   6 C    3.986 --    74 C    1.811    76 C    1.086   131 H    0.962
    76   6 C    3.987 --    81 C    1.392    77 C    1.354    75 C    1.086
    77   6 C    3.982 --    78 C    1.405    76 C    1.354   132 H    0.959
    78   6 C    3.988 --    77 C    1.405    79 C    1.320    89 C    1.089
    79   6 C    3.955 --    78 C    1.320    80 C    1.306    84 S    1.089
    80   6 C    3.987 --    81 C    1.368    79 C    1.306    82 C    1.123
    81   6 C    3.985 --    76 C    1.392    80 C    1.368   133 H    0.965
    82   6 C    3.986 --    88 C    1.359    83 C    1.305    80 C    1.123
    83   6 C    3.960 --    85 C    1.391    82 C    1.305    84 S    1.079
    84  16 S    2.481 --    79 C    1.089    83 C    1.079
    85   6 C    3.989 --    86 C    1.459    83 C    1.391   134 H    0.969
                            88 C    0.107
    86   6 C    3.983 --    85 C    1.459    87 C    1.401   135 H    0.970
    87   6 C    3.989 --    88 C    1.472    86 C    1.401   136 H    0.971
    88   6 C    3.991 --    87 C    1.472    82 C    1.359   137 H    0.966
                            85 C    0.107
    89   6 C    3.990 --    90 C    1.900    78 C    1.089   138 H    0.958
    90   6 C    3.989 --    89 C    1.900   139 H    0.978   140 H    0.972
    91   1 H    0.997 --     1 C    0.970
    92   1 H    0.999 --     2 C    0.967
    93   1 H    0.998 --     6 C    0.966
    94   1 H    0.998 --    10 C    0.969
    95   1 H    0.998 --    11 C    0.970
    96   1 H    0.998 --    12 C    0.971
    97   1 H    0.999 --    13 C    0.966
    98   1 H    0.998 --    14 C    0.955
    99   1 H    0.997 --    15 C    0.942
   100   1 H    0.998 --    17 C    0.959
   101   1 H    0.998 --    21 C    0.963
   102   1 H    0.998 --    25 C    0.969
   103   1 H    0.998 --    26 C    0.970
   104   1 H    0.998 --    27 C    0.971
   105   1 H    0.999 --    28 C    0.966
   106   1 H    0.997 --    29 C    0.952
   107   1 H    0.998 --    30 C    0.957
   108   1 H    0.999 --    32 C    0.966
   109   1 H    0.998 --    36 C    0.961
   110   1 H    0.998 --    40 C    0.969
   111   1 H    0.998 --    41 C    0.970
   112   1 H    0.998 --    42 C    0.971
   113   1 H    0.999 --    43 C    0.966
   114   1 H    0.997 --    44 C    0.955
   115   1 H    0.997 --    45 C    0.960
   116   1 H    0.998 --    47 C    0.965
   117   1 H    0.998 --    51 C    0.965
   118   1 H    0.998 --    55 C    0.969
   119   1 H    0.998 --    56 C    0.970
   120   1 H    0.998 --    57 C    0.971
   121   1 H    0.999 --    58 C    0.966
   122   1 H    0.997 --    59 C    0.959
   123   1 H    0.996 --    60 C    0.960
   124   1 H    0.999 --    62 C    0.963
   125   1 H    0.998 --    66 C    0.965
   126   1 H    0.998 --    70 C    0.969
   127   1 H    0.998 --    71 C    0.970
   128   1 H    0.998 --    72 C    0.971
   129   1 H    0.999 --    73 C    0.966
   130   1 H    0.998 --    74 C    0.959
   131   1 H    0.997 --    75 C    0.962
   132   1 H    0.998 --    77 C    0.959
   133   1 H    0.998 --    81 C    0.965
   134   1 H    0.998 --    85 C    0.969
   135   1 H    0.999 --    86 C    0.970
   136   1 H    0.998 --    87 C    0.971
   137   1 H    0.999 --    88 C    0.966
   138   1 H    0.998 --    89 C    0.958
   139   1 H    0.998 --    90 C    0.978
   140   1 H    0.998 --    90 C    0.972
 ---------------------------------------------------------------------------

Topologies differ in bond orders
Writing corrected topology to xtbtopo.mol

molecular dipole:
                 x           y           z       tot (Debye)
 q only:        0.259      -0.015       0.080
   full:        0.729       0.246      -0.063       1.961
molecular quadrupole (traceless):
                xx          xy          yy          xz          yz          zz
 q only:       -3.409       6.538       5.652     -10.430      -4.599      -2.243
  q+dip:       -1.772      13.271      15.109     -32.695      -8.522     -13.337
   full:       -1.544      12.692       4.885     -18.505      -7.312      -3.341

           -------------------------------------------------
          |                Geometry Summary                 |
           -------------------------------------------------

      molecular mass/u    :     1251.6875776
   center of mass at/Å    :       -0.2555604      -0.5323151      -0.0499601
  moments of inertia/u·Å² :        0.1913239E+05   0.3709179E+05   0.4085562E+05
rotational constants/cm⁻¹ :        0.8811042E-03   0.4544842E-03   0.4126148E-03

 * 146 selected distances

     #   Z          #   Z                                           value/Å
     1   6 C        2   6 C                                       1.3840602
     2   6 C        3   6 C                                       1.3988317
     3   6 C        4   6 C                                       1.4020657
     4   6 C        5   6 C                                       1.4068402
     1   6 C        6   6 C                                       1.3797230
     5   6 C        6   6 C                                       1.3906721
     5   6 C        7   6 C                                       1.4400918
     7   6 C        8   6 C                                       1.4013294
     4   6 C        9  16 S                                       1.7506277
     8   6 C        9  16 S                                       1.7448844
     8   6 C       10   6 C                                       1.3843730
    10   6 C       11   6 C                                       1.3808349
    11   6 C       12   6 C                                       1.3916753
     7   6 C       13   6 C                                       1.3914891
    12   6 C       13   6 C                                       1.3793400
    14   6 C       15   6 C                                       1.3399366
    16   6 C       17   6 C                                       1.3994597
    17   6 C       18   6 C                                       1.3901396
    18   6 C       19   6 C                                       1.4000107
    19   6 C       20   6 C                                       1.4024338
    16   6 C       21   6 C                                       1.3942130
    20   6 C       21   6 C                                       1.3861283
    20   6 C       22   6 C                                       1.4407375
    22   6 C       23   6 C                                       1.4037570
    19   6 C       24  16 S                                       1.7477501
    23   6 C       24  16 S                                       1.7499415
    23   6 C       25   6 C                                       1.3846359
    25   6 C       26   6 C                                       1.3817128
    26   6 C       27   6 C                                       1.3916874
    22   6 C       28   6 C                                       1.3912105
    27   6 C       28   6 C                                       1.3798360
    29   6 C       30   6 C                                       1.3390160
    31   6 C       32   6 C                                       1.4001192
    32   6 C       33   6 C                                       1.3872956
    33   6 C       34   6 C                                       1.3939697
    34   6 C       35   6 C                                       1.4045199
    31   6 C       36   6 C                                       1.3930503
    35   6 C       36   6 C                                       1.3870403
    35   6 C       37   6 C                                       1.4414795
    37   6 C       38   6 C                                       1.4045170
    34   6 C       39  16 S                                       1.7483820
    38   6 C       39  16 S                                       1.7509927 (max)
    38   6 C       40   6 C                                       1.3847289
    40   6 C       41   6 C                                       1.3816463
    41   6 C       42   6 C                                       1.3915421
    37   6 C       43   6 C                                       1.3915521
    42   6 C       43   6 C                                       1.3797714
    44   6 C       45   6 C                                       1.3338033
    46   6 C       47   6 C                                       1.3990946
    47   6 C       48   6 C                                       1.3866935
    48   6 C       49   6 C                                       1.3972635
    49   6 C       50   6 C                                       1.4048464
    46   6 C       51   6 C                                       1.3890598
    50   6 C       51   6 C                                       1.3894192
    50   6 C       52   6 C                                       1.4412576
    52   6 C       53   6 C                                       1.4042393
    49   6 C       54  16 S                                       1.7492295
    53   6 C       54  16 S                                       1.7467675
    53   6 C       55   6 C                                       1.3846056
    55   6 C       56   6 C                                       1.3812395
    56   6 C       57   6 C                                       1.3915803
    52   6 C       58   6 C                                       1.3914228
    57   6 C       58   6 C                                       1.3798803
    59   6 C       60   6 C                                       1.3344851
    61   6 C       62   6 C                                       1.3971060
    62   6 C       63   6 C                                       1.3876352
    63   6 C       64   6 C                                       1.3983213
    64   6 C       65   6 C                                       1.4039462
    61   6 C       66   6 C                                       1.3875931
    65   6 C       66   6 C                                       1.3911121
    65   6 C       67   6 C                                       1.4399551
    67   6 C       68   6 C                                       1.4040251
    64   6 C       69  16 S                                       1.7487220
    68   6 C       69  16 S                                       1.7479924
    68   6 C       70   6 C                                       1.3849494
    70   6 C       71   6 C                                       1.3813234
    71   6 C       72   6 C                                       1.3917987
    67   6 C       73   6 C                                       1.3914476
    72   6 C       73   6 C                                       1.3795843
    74   6 C       75   6 C                                       1.3365975
    76   6 C       77   6 C                                       1.3972328
    77   6 C       78   6 C                                       1.3876875
    78   6 C       79   6 C                                       1.3975139
    79   6 C       80   6 C                                       1.4036079
    76   6 C       81   6 C                                       1.3905971
    80   6 C       81   6 C                                       1.3874743
    80   6 C       82   6 C                                       1.4404974
    82   6 C       83   6 C                                       1.4042019
    79   6 C       84  16 S                                       1.7482170
    83   6 C       84  16 S                                       1.7487728
    83   6 C       85   6 C                                       1.3846279
    85   6 C       86   6 C                                       1.3812133
    86   6 C       87   6 C                                       1.3911512
    82   6 C       88   6 C                                       1.3912977
    87   6 C       88   6 C                                       1.3796308
    89   6 C       90   6 C                                       1.3269704
     1   6 C       91   1 H                                       1.0800738
     2   6 C       92   1 H                                       1.0808060
     6   6 C       93   1 H                                       1.0788682
    10   6 C       94   1 H                                       1.0789584
    11   6 C       95   1 H                                       1.0797279
    12   6 C       96   1 H                                       1.0799419
    13   6 C       97   1 H                                       1.0794974
    14   6 C       98   1 H                                       1.0819950
    15   6 C       99   1 H                                       1.0793119
    17   6 C      100   1 H                                       1.0775550
    21   6 C      101   1 H                                       1.0793503
    25   6 C      102   1 H                                       1.0791110
    26   6 C      103   1 H                                       1.0796636
    27   6 C      104   1 H                                       1.0797667
    28   6 C      105   1 H                                       1.0792088
    29   6 C      106   1 H                                       1.0829895
    30   6 C      107   1 H                                       1.0824202
    32   6 C      108   1 H                                       1.0807325
    36   6 C      109   1 H                                       1.0782700
    40   6 C      110   1 H                                       1.0790372
    41   6 C      111   1 H                                       1.0795865
    42   6 C      112   1 H                                       1.0797440
    43   6 C      113   1 H                                       1.0794939
    44   6 C      114   1 H                                       1.0831210
    45   6 C      115   1 H                                       1.0828549
    47   6 C      116   1 H                                       1.0793096
    51   6 C      117   1 H                                       1.0801687
    55   6 C      118   1 H                                       1.0792858
    56   6 C      119   1 H                                       1.0795818
    57   6 C      120   1 H                                       1.0798541
    58   6 C      121   1 H                                       1.0797753
    59   6 C      122   1 H                                       1.0819671
    60   6 C      123   1 H                                       1.0814531
    62   6 C      124   1 H                                       1.0797155
    66   6 C      125   1 H                                       1.0793094
    70   6 C      126   1 H                                       1.0790274
    71   6 C      127   1 H                                       1.0797337
    72   6 C      128   1 H                                       1.0798517
    73   6 C      129   1 H                                       1.0794976
    74   6 C      130   1 H                                       1.0843174
    75   6 C      131   1 H                                       1.0839095
    77   6 C      132   1 H                                       1.0776348
    81   6 C      133   1 H                                       1.0798412
    85   6 C      134   1 H                                       1.0789483
    86   6 C      135   1 H                                       1.0793904
    87   6 C      136   1 H                                       1.0796697
    88   6 C      137   1 H                                       1.0796121
    89   6 C      138   1 H                                       1.0835112
    90   6 C      139   1 H                                       1.0766037 (min)
    90   6 C      140   1 H                                       1.0773413

 * 3 distinct bonds (by element types)

   Z      Z             #   av. dist./Å        max./Å        min./Å
   1 H    6 C          50     1.0800279     1.0843174     1.0766037
   6 C    6 C          84     1.3910174     1.4414795     1.3269704
   6 C   16 S          12     1.7485233     1.7509927     1.7448844


optimized geometry written to: xtbopt.mol


           -------------------------------------------------
          | TOTAL ENERGY             -224.909826754724 Eh   |
          | GRADIENT NORM               0.000278346200 Eh/α |
          | HOMO-LUMO GAP               2.255197635057 eV   |
           -------------------------------------------------

------------------------------------------------------------------------
 * finished run on 2022/02/28 at 16:52:02.970     
------------------------------------------------------------------------
 total:
 * wall-time:     0 d,  0 h,  0 min, 20.967 sec
 *  cpu-time:     0 d,  0 h,  2 min, 47.557 sec
 * ratio c/w:     7.991 speedup
 SCF:
 * wall-time:     0 d,  0 h,  0 min,  0.324 sec
 *  cpu-time:     0 d,  0 h,  0 min,  2.587 sec
 * ratio c/w:     7.975 speedup
 ANC optimizer:
 * wall-time:     0 d,  0 h,  0 min, 20.549 sec
 *  cpu-time:     0 d,  0 h,  2 min, 44.335 sec
 * ratio c/w:     7.997 speedup

